                         Program Version 4.2.1 -  RELEASE  -
|  1> !B3LYP D3BJ RIJCOSX def2-SVPD def2/J TightSCF TightOpt
|  2> * xyz 0 1
|  3> O          1.02820        0.08700       -0.04170
|  4> C          2.24820        0.07610       -0.05100
|  5> C          2.99890        1.04050        0.77100
|  6> C          4.33850        1.04440        0.77430
|  7> C          5.08860        2.01320        1.60010
|  8> C          6.42370        2.02030        1.60620
|  9> H          2.77160       -0.64790       -0.66820
| 10> H          2.44970        1.75460        1.37970
| 11> H          4.88340        0.32790        0.16360
| 12> H          4.55240        2.73250        2.21330
| 13> H          6.98900        1.31450        1.00460
| 14> H          6.95880        2.73880        2.21860
| 15> *
| 16> %MaxCore 64000
| 17> %scf
| 18>  Convergence VeryTight
| 19>  MaxIter 150
| 20> end
| 21> %pal nprocs 4
| 22> end
| 23> %geom
| 24>  MaxIter 250
| 25> end
| 26>
| 27>                          ****END OF INPUT****
 Total Charge           Charge          ....    0
 Multiplicity           Mult            ....    1
 Number of Electrons    NEL             ....   44
Dispersion correction           -0.015179339
FINAL SINGLE POINT ENERGY      -268.991584023304
Dispersion correction            ... done
Dispersion correction           -0.015110526
FINAL SINGLE POINT ENERGY      -268.994985822616
Dispersion correction            ... done
Dispersion correction           -0.015098388
FINAL SINGLE POINT ENERGY      -268.995788403854
Dispersion correction            ... done
FINAL SINGLE POINT ENERGY      -268.995401282615
FINAL SINGLE POINT ENERGY      -268.995871310035
FINAL SINGLE POINT ENERGY      -268.995879044290
FINAL SINGLE POINT ENERGY      -268.995881206761
Dispersion correction            ... done
Dispersion correction           -0.015105025
FINAL SINGLE POINT ENERGY      -268.995881388674
Dispersion correction            ... done
Dispersion correction           -0.015105262
FINAL SINGLE POINT ENERGY      -268.995881706507
Dispersion correction            ... done
                    ***********************HURRAY********************

CARTESIAN COORDINATES (ANGSTROEM)
---------------------------------
  O      1.005762    0.034876   -0.098018
  C      2.218293    0.091932   -0.039522
  C      2.961026    1.052361    0.781319
  C      4.313749    1.073540    0.802398
  C      5.106964    1.996803    1.593153
  C      6.451682    2.013630    1.598421
  H      2.853589   -0.614581   -0.630183
  H      2.368200    1.754072    1.374908
  H      4.857106    0.347263    0.185600
  H      4.552157    2.712353    2.206837
  H      7.031491    1.312706    0.992262
  H      7.010981    2.726944    2.203324

 Multiplicity           Mult            ....    1
 Number of Electrons    NEL             ....   44
 Basis Dimension        Dim             ....  171

ORBITAL ENERGIES
----------------

  NO   OCC          E(Eh)            E(eV)
   0   2.0000     -19.138078      -520.7736
   1   2.0000     -10.277378      -279.6617
   2   2.0000     -10.230499      -278.3860
   3   2.0000     -10.220392      -278.1110
   4   2.0000     -10.216448      -278.0037
   5   2.0000     -10.210128      -277.8317
   6   2.0000      -1.034130       -28.1401
   7   2.0000      -0.832206       -22.6455
   8   2.0000      -0.767640       -20.8885
   9   2.0000      -0.658971       -17.9315
  10   2.0000      -0.579548       -15.7703
  11   2.0000      -0.571645       -15.5553
  12   2.0000      -0.508560       -13.8386
  13   2.0000      -0.479873       -13.0580
  14   2.0000      -0.445087       -12.1114
  15   2.0000      -0.427322       -11.6280
  16   2.0000      -0.407959       -11.1011
  17   2.0000      -0.406339       -11.0571
  18   2.0000      -0.379957       -10.3391
  19   2.0000      -0.350204        -9.5295
  20   2.0000      -0.264891        -7.2080
  21   2.0000      -0.263841        -7.1795
  22   0.0000      -0.092214        -2.5093
  23   0.0000       0.002397         0.0652
  24   0.0000       0.019801         0.5388
  25   0.0000       0.025405         0.6913
  26   0.0000       0.035579         0.9681

MULLIKEN ATOMIC CHARGES
-----------------------
   0 O :   -0.358832
   1 C :    0.453874
   2 C :   -0.037363
   3 C :    0.118808
   4 C :    0.088892
   5 C :    0.306285
   6 H :   -0.180859
   7 H :   -0.114708
   8 H :   -0.052255
   9 H :   -0.039268
  10 H :   -0.096558
  11 H :   -0.088016
Sum of atomic charges:   -0.0000000

LOEWDIN ATOMIC CHARGES
----------------------
   0 O :   -0.181947
   1 C :    0.001136
   2 C :    0.035855
   3 C :    0.000894
   4 C :   -0.062303
   5 C :    0.179027
   6 H :    0.026376
   7 H :    0.025462
   8 H :    0.019749
   9 H :    0.011128
  10 H :   -0.025682
  11 H :   -0.029695

  Mayer bond orders larger than 0.100000
B(  0-O ,  1-C ) :   1.9646 B(  0-O ,  6-H ) :   0.1109 B(  1-C ,  2-C ) :   1.0081
B(  1-C ,  6-H ) :   1.0762 B(  1-C ,  7-H ) :   0.1197 B(  2-C ,  3-C ) :   1.8418
B(  2-C ,  4-C ) :   0.1748 B(  2-C ,  7-H ) :   0.9645 B(  2-C ,  8-H ) :   0.1124
B(  3-C ,  4-C ) :   1.1672 B(  3-C ,  7-H ) :   0.1415 B(  3-C ,  8-H ) :   1.0323
B(  3-C ,  9-H ) :   0.1320 B(  4-C ,  5-C ) :   1.8419 B(  4-C ,  8-H ) :   0.1037
B(  4-C ,  9-H ) :   0.8959 B(  4-C , 11-H ) :   0.1284 B(  5-C ,  9-H ) :   0.1649
B(  5-C , 10-H ) :   0.9818 B(  5-C , 11-H ) :   0.7792

Dispersion correction           -0.015105325
FINAL SINGLE POINT ENERGY      -268.995881860244

DIPOLE MOMENT
-------------
                                X             Y             Z
Electronic contribution:     -4.82093      -1.56119      -1.33692
Nuclear contribution   :      6.44118       1.97826       1.69865
                        -----------------------------------------
Total Dipole Moment    :      1.62025       0.41708       0.36173
                        -----------------------------------------
Magnitude (a.u.)       :      1.71172
Magnitude (Debye)      :      4.35086

Rotational constants in cm-1:     0.961772     0.044455     0.042491
Rotational constants in MHz : 28833.201369  1332.724159  1273.852714

                             ****ORCA TERMINATED NORMALLY****
TOTAL RUN TIME: 0 days 0 hours 2 minutes 19 seconds 286 msec
